11
Properties=species:S:1:pos:R:3:forces:R:3 dipole_x_D=0.869643564 dipole_y_D=-0.258242611 dipole_z_D=0.185597641 dipole_mag_D=0.9259674178325521 dipole_x_eA=0.18105486784222777 dipole_y_eA=-0.053764649957021744 dipole_z_eA=0.03864037837355194 status_dipole=OK Q_xx_B=-108.544491416 Q_yy_B=-95.545913563 Q_zz_B=-98.318252143 Q_xy_B=2.44197437 Q_xz_B=-1.837597501 Q_yz_B=-4.283089998 Q_isotropic_B=-100.80288570733335 Q_xx_eAA=-22.598347991178347 Q_yy_eAA=-19.892117745124438 Q_zz_eAA=-20.469302926637706 Q_xy_eAA=0.5084052251652452 Q_xz_eAA=-0.3825773860431619 Q_yz_eAA=-0.8917150653125815 Q_isotropic_eAA=-20.9865895543135 status_quadrupole=OK total_charge_e=0 multiplicity=1 natoms=11 geom_sha1=0fe94d3b919c41f1b3d64f8679f3475798425b9f R_cog_x=-1.7653272727272729 R_cog_y=0.43442454545454545 R_cog_z=-0.3160336363636364 R_com_x=-1.024587326896698 R_com_y=0.47835493424560427 R_com_z=-0.3480507698762202 R_cnc_x=-1.1409646710526316 R_cnc_y=0.4768967763157895 R_cnc_z=-0.3470017105263158 status_eigs=OK spin_case=RKS homo_eV=-12.3361 lumo_eV=-2.0435 gap_eV=10.2926 n_orb_a=468 n_orb_b=0 argonne_rel=noble_gas_compounds/FXeNSO2F2_step21_0_1/ data_id=orca.tar.zst energy=-48460.35998959329 free_energy=-48460.35998959329 dipole="0.46019555538231727 -0.13665610453770313 0.0982140419516092" pbc="F F F"
Xe       0.48482000       0.60036000      -0.43683000      -0.01967866      -0.05951713       0.06675155
F        2.44525000       0.51555000      -0.36544000       0.00389116       0.03631755      -0.03780304
N       -1.72097000       0.68507000      -0.49909000       0.02358087       0.01905095      -0.00927716
O       -3.78611000       0.06084000      -1.82075000       0.00394891       0.00658768      -0.00007292
O       -3.78513000       1.75757000       0.49620000      -0.00369668       0.00091192      -0.00560896
S       -2.46273000      -0.33313000      -1.54768000       0.00987597      -0.01574693      -0.03041199
F       -2.55864000      -1.62138000      -0.66617000      -0.00355069      -0.00180728       0.01281752
S       -2.46459000       1.37058000       0.79150000       0.01880299       0.01489060       0.01080465
F       -2.56857000       0.13369000       1.74284000      -0.00474821      -0.00721930      -0.00050383
O       -1.50145000       2.22876000       1.37558000      -0.01206747       0.00493786       0.00191074
O       -1.50048000      -0.61924000      -2.54653000      -0.01635823       0.00159408      -0.00860661
4
Properties=species:S:1:pos:R:3:forces:R:3 dipole_x_D=-1.369982236 dipole_y_D=-0.322725545 dipole_z_D=-0.32973991 dipole_mag_D=1.4455903681879991 dipole_x_eA=-0.28522254743574427 dipole_y_eA=-0.0671896318424153 dipole_z_eA=-0.06864998293410941 status_dipole=OK Q_xx_B=-39.31093696 Q_yy_B=-32.769478455 Q_zz_B=-32.721378495 Q_xy_B=-2.343968942 Q_xz_B=-2.394919399 Q_yz_B=1.117688056 Q_isotropic_B=-34.93393130333334 Q_xx_eAA=-8.184314299992248 Q_yy_eAA=-6.822419709696596 Q_zz_eAA=-6.81240557060707 Q_xy_eAA=-0.4880010504524057 Q_xz_eAA=-0.4986086468635659 Q_yz_eAA=0.23269631932098667 Q_isotropic_eAA=-7.273046526765305 status_quadrupole=OK total_charge_e=0 multiplicity=1 natoms=4 geom_sha1=b6706cf3ac1154ba541826f458386085191276e8 R_cog_x=0.825115 R_cog_y=-0.1582425 R_cog_z=-0.16168249999999998 R_com_x=0.31014786207035117 R_com_y=-0.02001048168885793 R_com_z=-0.020439836780346665 R_cnc_x=0.35636140625 R_cnc_y=-0.02519578125 R_cnc_z=-0.025738125 status_eigs=OK spin_case=RKS homo_eV=-9.3323 lumo_eV=0.3977 gap_eV=9.73 n_orb_a=117 n_orb_b=0 argonne_rel=noble_gas_compounds/HXeOH_step10_0_1/ data_id=orca.tar.zst energy=-11037.357586238646 free_energy=-11037.357586238646 dipole="-0.7249633781684939 -0.1707790036807954 -0.17449084578537205" pbc="F F F"
Xe       0.07185000      -0.01501000      -0.01533000      -0.01883755      -0.00336413      -0.00348035
O        2.24266000      -0.02629000      -0.02686000       0.00931248       0.00296448       0.00302830
H       -1.62220000       0.05819000       0.05945000       0.01217047       0.00115263       0.00120179
H        2.60815000      -0.64986000      -0.66399000      -0.00264541      -0.00075297      -0.00074973
7
Properties=species:S:1:pos:R:3:forces:R:3 dipole_x_D=-0.133543123 dipole_y_D=0.133557444 dipole_z_D=-6.58e-07 dipole_mag_D=0.18886862245709113 dipole_x_eA=-0.027802922354523824 dipole_y_eA=0.02780590390566696 dipole_z_eA=-1.3699187572e-07 status_dipole=OK Q_xx_B=-60.76308372 Q_yy_B=-60.76296433 Q_zz_B=-58.9625187 Q_xy_B=-0.355733888 Q_xz_B=-8.8e-08 Q_yz_B=-9.88e-07 Q_isotropic_B=-60.16285558333333 Q_xx_eAA=-12.650529686108559 Q_yy_eAA=-12.650504829787144 Q_zz_eAA=-12.275662252746526 Q_xy_eAA=-0.0740617795376567 Q_xz_eAA=-1.8321101304e-08 Q_yz_eAA=-2.0569600100399998e-07 Q_isotropic_eAA=-12.52556558954741 status_quadrupole=OK total_charge_e=0 multiplicity=1 natoms=7 geom_sha1=b19a9a186b55474ddba8308730e444d0f9fe41bd R_cog_x=0.001427142857142858 R_cog_y=-0.001428571428571407 R_cog_z=0.0 R_com_x=0.03953591085964443 R_com_y=-0.03953670482641695 R_com_z=0.0 R_cnc_x=0.03932311320754717 R_cnc_y=-0.039323962264150934 R_cnc_z=0.0 status_eigs=OK spin_case=RKS homo_eV=-13.2395 lumo_eV=-4.2806 gap_eV=8.9589 n_orb_a=299 n_orb_b=0 argonne_rel=noble_gas_compounds/O2XeF4_step3_0_1/ data_id=orca.tar.zst energy=-23911.901651077937 free_energy=-23911.901651077937 dipole="-0.07066797731912394 0.07067555566595642 -3.4819860455100745e-07" pbc="F F F"
Xe       0.13061000      -0.13061000      -0.00000000       0.08672378      -0.08682662       0.00001615
O        1.86055000       0.06144000       0.00000000      -0.72279361       0.07088337      -0.00000473
F       -0.07840000       1.74930000       0.00000000       0.10291947      -0.67948677      -0.00000159
F       -1.74931000       0.07840000      -0.00000000       0.67965888      -0.10292985      -0.00000710
O       -0.06144000      -1.86055000       0.00000000      -0.07086604       0.72275459      -0.00000812
F       -0.04601000       0.04601000       1.86899000      -0.03782222       0.03780915      -0.89814960
F       -0.04601000       0.04601000      -1.86899000      -0.03782021       0.03779614       0.89815495
23
Properties=species:S:1:pos:R:3:forces:R:3 dipole_x_D=0.212118087 dipole_y_D=0.33054848 dipole_z_D=-0.001902591 dipole_mag_D=0.3927594687787466 dipole_x_eA=0.04416178512502758 dipole_y_eA=0.0688183226316032 dipole_z_eA=-0.00039610867753494 status_dipole=OK Q_xx_B=-163.403743789 Q_yy_B=-148.816000186 Q_zz_B=-147.899674769 Q_xy_B=5.482465592 Q_xz_B=0.263360934 Q_yz_B=1.550484209 Q_isotropic_B=-153.37313958133333 Q_xx_eAA=-34.01973344785375 Q_yy_eAA=-30.982647898452147 Q_zz_eAA=-30.791874139448886 Q_xy_eAA=1.1414182671218902 Q_xz_eAA=0.05483025399238702 Q_yz_eAA=0.3228020257197876 Q_isotropic_eAA=-31.931418495251595 status_quadrupole=OK total_charge_e=0 multiplicity=1 natoms=23 geom_sha1=baff77b0512faff89348ef700287599fc84b166f R_cog_x=-2.5907465217391303 R_cog_y=1.1778547826086956 R_cog_z=0.001007826086956508 R_com_x=-2.5079942146035075 R_com_y=1.3433946043922202 R_com_z=-0.003367827922850838 R_cnc_x=-2.5194333333333336 R_cnc_y=1.3203804166666668 R_cnc_z=-0.002774583333333346 status_eigs=OK spin_case=RKS homo_eV=-9.4887 lumo_eV=-0.3884 gap_eV=9.100299999999999 n_orb_a=903 n_orb_b=0 argonne_rel=noble_gas_compounds/XeC6F52_step4_0_1/ data_id=orca.tar.zst energy=-48573.968796798436 free_energy=-48573.968796798436 dipole="0.11224805758879818 0.17491872260251762 -0.0010068077982238691" pbc="F F F"
C        1.92563000       0.04475000      -0.02134000       0.11730525      -0.11569384       0.00235760
C        0.90583000       0.96246000      -0.02337000      -0.11797513       0.25047427      -0.00005230
C       -0.40497000       0.57737000      -0.01522000       0.13869473       0.45724070      -0.02115689
C       -0.68808000      -0.75933000      -0.00386000      -0.09973104       0.09088799      -0.00071307
C        0.30228000      -1.70696000      -0.00132000       0.05222996      -0.14661167      -0.00088662
C        1.61448000      -1.29818000      -0.01044000       0.08195736       0.02549979      -0.00047257
F        3.19312000       0.42192000      -0.02938000       0.48374734       0.15515020      -0.00326031
F        1.21545000       2.26163000      -0.03310000       0.13028753       0.37724000      -0.00618165
Xe      -2.23844000       1.89143000      -0.01684000      -0.61966897      -0.59174880       0.02473180
F       -1.95641000      -1.17659000       0.00458000      -0.46417378      -0.21110728       0.00110686
F        0.00972000      -2.99590000       0.00857000      -0.08239918      -0.53595205       0.00559791
F        2.57954000      -2.19762000      -0.00865000       0.39328013      -0.33145780       0.00112033
C       -7.10031000       3.03175000       0.02734000       0.55159120      -0.12136544       0.01266711
C       -6.45352000       2.72693000       1.20814000      -0.75214009       0.12577663      -0.05372871
C       -5.12006000       2.49532000       1.17552000       0.96809040      -0.17727377       0.22104958
C       -4.42663000       2.57248000       0.00683000       1.18081223       0.24028704      -0.11477107
C       -5.08037000       2.84532000      -1.15756000       1.00244054      -0.10980262      -0.19696318
C       -6.41319000       3.08413000      -1.16801000      -0.73688449       0.10930424       0.00296690
F       -8.38154000       3.25549000       0.03795000      -1.51969440       0.26240717       0.02325311
F       -7.11792000       2.65306000       2.34788000      -0.49431802       0.03050907       0.40102934
F       -4.49589000       2.17523000       2.32394000       0.09595430       0.04482703       0.02927911
F       -4.41533000       2.87388000      -2.32675000       0.11335342       0.04225166      -0.00914002
F       -7.04056000       3.35209000      -2.30173000      -0.42275917       0.12915753      -0.31783332
14
Properties=species:S:1:pos:R:3:forces:R:3 dipole_x_D=-0.383056394 dipole_y_D=0.639499741 dipole_z_D=-0.002186314 dipole_mag_D=0.7454508029992702 dipole_x_eA=-0.07975017313160997 dipole_y_eA=0.13314022650766594 dipole_z_eA=-0.00045517820026276 status_dipole=OK Q_xx_B=-83.103848209 Q_yy_B=-72.354877571 Q_zz_B=-94.308812671 Q_xy_B=-10.039057248 Q_xz_B=1.614943336 Q_yz_B=0.964404084 Q_isotropic_B=-83.25584615033334 Q_xx_eAA=-17.301750247606 Q_yy_eAA=-15.063875475191006 Q_zz_eAA=-19.634560350060795 Q_xy_eAA=-2.090074827696176 Q_xz_eAA=0.33622205067131494 Q_yz_eAA=0.20078346501085598 Q_isotropic_eAA=-17.333395357619267 status_quadrupole=OK total_charge_e=1 multiplicity=1 natoms=14 geom_sha1=371fb0f25bac5f8fdeed6f83760699996635f16b R_cog_x=-0.36858428571428575 R_cog_y=0.5904785714285714 R_cog_z=6.660099059553813e-18 R_com_x=-0.8939012558528217 R_com_y=1.4676946103324677 R_com_z=-0.0008670224996982869 R_cnc_x=-0.8334998039215687 R_cnc_y=1.366826274509804 R_cnc_z=-0.0007605882352941032 status_eigs=OK spin_case=RKS homo_eV=-14.6629 lumo_eV=-6.416 gap_eV=8.2469 n_orb_a=561 n_orb_b=0 argonne_rel=noble_gas_compounds/XeC6F5F2+_step26_1_1/ data_id=orca.tar.zst energy=-34190.06399585642 free_energy=-34190.06399585642 dipole="-0.2027047140655637 0.3384086890986788 -0.0011569475439366739" pbc="F F F"
C        1.24287000       0.13570000       0.40218000       0.01510570       0.02448153       0.00712190
C        0.54394000       1.32806000       0.40246000       0.01483234      -0.03909244      -0.00738164
C       -0.78355000       1.29194000      -0.00413000      -0.02928168       0.00313592      -0.00113895
C       -1.44733000       0.13903000      -0.40500000       0.00353856      -0.01418930       0.00158308
C       -0.73346000      -1.04368000      -0.40026000       0.00723051      -0.00123516       0.00350308
C        0.60218000      -1.03639000       0.00229000      -0.01076696       0.00368532      -0.00521420
F        2.50186000       0.10654000       0.77514000      -0.00027459      -0.00493282      -0.00053859
F        1.10625000       2.45902000       0.77167000       0.00322997       0.02138315       0.00410734
F       -2.71097000       0.18348000      -0.77222000      -0.00117474      -0.00142948      -0.00649584
F       -1.30626000      -2.16605000      -0.76969000      -0.00189058      -0.00585152      -0.00145972
F        1.27117000      -2.15767000       0.00483000      -0.00185901      -0.00553157      -0.00070654
F       -2.31333000       2.67903000       1.82400000      -0.00191717      -0.00221722      -0.00066581
F       -1.29333000       3.29951000      -1.82852000       0.00145591      -0.00557863      -0.00258488
Xe      -1.84022000       3.04818000      -0.00275000       0.00177170       0.02737227       0.00987077
8
Properties=species:S:1:pos:R:3:forces:R:3 dipole_x_D=-0.088769273 dipole_y_D=-0.271930228 dipole_z_D=0.269078019 dipole_mag_D=0.3927200186367444 dipole_x_eA=-0.01848126020451482 dipole_y_eA=-0.05661433434450952 dipole_z_eA=0.05602052057421246 status_dipole=OK Q_xx_B=-77.925058374 Q_yy_B=-76.853990496 Q_zz_B=-74.254510312 Q_xy_B=-0.903436071 Q_xz_B=1.575053212 Q_yz_B=-2.757309609 Q_isotropic_B=-76.34451972733332 Q_xx_eAA=-16.223555552160995 Q_yy_eAA=-16.000565289703058 Q_zz_eAA=-15.459368246648461 Q_xy_eAA=-0.18809027020998564 Q_xz_eAA=0.32791715291184764 Q_yz_eAA=-0.5740562349202458 Q_isotropic_eAA=-15.894496362837502 status_quadrupole=OK total_charge_e=-1 multiplicity=1 natoms=8 geom_sha1=a554a8b3abb93f573cdfbd96bd23b58c879ba9a4 R_cog_x=0.03450625000000001 R_cog_y=-0.14860125 R_cog_z=0.20277125000000001 R_com_x=0.03650914468095918 R_com_y=-0.12506099671047685 R_com_z=0.1756108083929436 R_cnc_x=0.036319230769230784 R_cnc_y=-0.1272930769230769 R_cnc_z=0.17818615384615388 status_eigs=OK spin_case=RKS homo_eV=-6.82 lumo_eV=2.5261 gap_eV=9.3461 n_orb_a=339 n_orb_b=0 argonne_rel=noble_gas_compounds/XeF7-_step4_-1_1/ data_id=orca.tar.zst energy=-27975.80154489747 free_energy=-27975.80154489747 dipole="-0.0469746762699201 -0.14389927952102932 0.14238995551846426" pbc="F F F"
Xe       0.03922000      -0.09320000       0.13885000      -0.04763504       0.18587864      -0.24749549
F       -0.05166000      -0.00956000       2.05288000       0.02003851      -0.06784170       0.09415216
F        1.83844000      -0.02768000      -0.78576000      -0.08322111      -0.00625385       0.03408044
F       -1.52809000       1.17555000       0.08907000       0.17679061      -0.24061599      -0.18909195
F       -0.34669000      -0.93112000      -1.65533000      -0.10459742       0.25931876       0.22716176
F       -1.46791000      -1.25375000       0.52361000       0.06407498       0.01013318       0.01208547
F        0.88069000       1.68041000       0.63083000      -0.04351695      -0.07454914      -0.02566578
F        0.91205000      -1.72946000       0.62802000       0.01806647      -0.06606995       0.09477339
